REMARK  7 active torsions:
REMARK  status: ('A' for Active; 'I' for Inactive)
REMARK    1  A    between atoms: C3_3  and  N1_4 
REMARK    2  A    between atoms: N1_4  and  C6_7 
REMARK    3  A    between atoms: C6_7  and  C7_8 
REMARK    4  A    between atoms: C11_12  and  O1_13 
REMARK    5  A    between atoms: O1_13  and  C12_14 
REMARK    6  A    between atoms: C12_14  and  C13_15 
REMARK    7  A    between atoms: C13_15  and  O3_17 
ROOT
HETATM    1  C1  LIG X 999      -1.385   4.427  -2.468  1.00  0.00     0.013 C 
HETATM    2  C2  LIG X 999      -1.717   3.622  -1.640  1.00  0.00    -0.089 C 
HETATM    3  C3  LIG X 999      -2.142   2.648  -0.632  1.00  0.00     0.329 C 
ENDROOT
BRANCH   3   4
HETATM    4  N1  LIG X 999      -0.990   1.749  -0.148  1.00  0.00    -0.061 N 
HETATM    5  C4  LIG X 999       0.126   2.594   0.448  1.00  0.00     0.273 C 
HETATM    6  C5  LIG X 999      -0.435   0.935  -1.315  1.00  0.00     0.273 C 
BRANCH   4   7
HETATM    7  C6  LIG X 999      -1.587   0.814   0.932  1.00  0.00     0.276 C 
BRANCH   7   8
HETATM    8  C7  LIG X 999      -0.675  -0.242   1.501  1.00  0.00    -0.030 A 
HETATM    9  C8  LIG X 999       0.096  -0.004   2.649  1.00  0.00     0.009 A 
HETATM   10  C9  LIG X 999       0.957  -0.989   3.141  1.00  0.00     0.003 A 
HETATM   11  C10 LIG X 999       1.069  -2.217   2.487  1.00  0.00     0.037 A 
HETATM   12  C11 LIG X 999       0.315  -2.453   1.344  1.00  0.00     0.070 A 
HETATM   13  C14 LIG X 999      -0.579  -1.493   0.876  1.00  0.00     0.045 A 
BRANCH  12  14
HETATM   14  O1  LIG X 999       0.361  -3.637   0.664  1.00  0.00    -0.341 OA
BRANCH  14  15
HETATM   15  C12 LIG X 999       1.627  -3.881   0.053  1.00  0.00     0.285 C 
BRANCH  15  16
HETATM   16  C13 LIG X 999       1.936  -3.019  -1.170  1.00  0.00     0.164 C 
HETATM   17  O2  LIG X 999       1.269  -2.105  -1.635  1.00  0.00    -0.648 OA
BRANCH  16  18
HETATM   18  O3  LIG X 999       3.106  -3.372  -1.746  1.00  0.00    -0.775 OA
HETATM   19  H17 LIG X 999       3.202  -2.797  -2.534  1.00  0.00     0.167 HD
ENDBRANCH  16  18
ENDBRANCH  15  16
ENDBRANCH  14  15
ENDBRANCH  12  14
ENDBRANCH   7   8
ENDBRANCH   4   7
ENDBRANCH   3   4
TORSDOF 7
